<?xml version="1.0" encoding="UTF-8"?>

<!-- generated on 2019年07月10日 11時30分21秒 by Eclipse SUMO GUI Version 1.2.0
<configuration xmlns:xsi="http://www.w3.org/2001/XMLSchema-instance" xsi:noNamespaceSchemaLocation="http://sumo.dlr.de/xsd/sumoConfiguration.xsd">

    <input>
        <net-file value="../real_data/hakata-tenjin.net.xml"/>
        <route-files value="../real_data/routes.rou.xml,../real_data/vehicle_with_navi.rou.xml"/>
        <additional-files value="../real_data/station.add.xml,../real_data/subway-nanakuma-line.add.xml,../real_data/subway-kuko-hakozaki-line.add.xml,../real_data/hakata-tenjin.poly.xml,../real_data/parking_area.add.xml"/>
    </input>

    <output>
        <tripinfo-output value="../output/tripinfo.xml"/>
    </output>

    <time>
        <begin value="25200"/>
        <end value="34200"/>
    </time>

    <traci_server>
        <remote-port value="8873"/>
    </traci_server>

</configuration>
-->

<tripinfos xmlns:xsi="http://www.w3.org/2001/XMLSchema-instance" xsi:noNamespaceSchemaLocation="http://sumo.dlr.de/xsd/tripinfo_file.xsd">
    <tripinfo id="Hakataekimae3_C_0700.0" depart="25200.00" departLane="41118349#9_0" departPos="5.10" departSpeed="0.00" departDelay="0.00" arrival="25209.00" arrivalLane="40745201#1_0" arrivalPos="11.57" arrivalSpeed="17.35" duration="9.00" routeLength="77.78" waitingTime="0.00" waitingCount="0" stopTime="0.00" timeLoss="4.54" rerouteNo="0" devices="tripinfo_Hakataekimae3_C_0700.0" vType="DEFAULT_VEHTYPE" speedFactor="1.04" vaporized=""/>
    <tripinfo id="Chikkohommachi_D_0700.0" depart="25200.00" departLane="-42762530#1_0" departPos="5.10" departSpeed="0.00" departDelay="0.00" arrival="25213.00" arrivalLane="40745158#1_0" arrivalPos="24.71" arrivalSpeed="25.41" duration="13.00" routeLength="159.32" waitingTime="0.00" waitingCount="0" stopTime="0.00" timeLoss="7.51" rerouteNo="0" devices="tripinfo_Chikkohommachi_D_0700.0" vType="DEFAULT_VEHTYPE" speedFactor="1.18" vaporized=""/>
    <tripinfo id="Chikkohommachi_D_0700.1" depart="25203.00" departLane="-42762530#1_0" departPos="5.10" departSpeed="0.00" departDelay="0.48" arrival="25216.00" arrivalLane="40745158#1_0" arrivalPos="24.71" arrivalSpeed="24.76" duration="13.00" routeLength="159.32" waitingTime="0.00" waitingCount="0" stopTime="0.00" timeLoss="6.49" rerouteNo="0" devices="tripinfo_Chikkohommachi_D_0700.1" vType="DEFAULT_VEHTYPE" speedFactor="0.99" vaporized=""/>
    <tripinfo id="Hakataekimae3_B_0700.2" depart="25208.00" departLane="-40745201#1_0" departPos="5.10" departSpeed="0.00" departDelay="-0.62" arrival="25217.00" arrivalLane="268408808#2_0" arrivalPos="19.26" arrivalSpeed="15.62" duration="9.00" routeLength="69.53" waitingTime="0.00" waitingCount="0" stopTime="0.00" timeLoss="4.56" rerouteNo="0" devices="tripinfo_Hakataekimae3_B_0700.2" vType="DEFAULT_VEHTYPE" speedFactor="1.09" vaporized=""/>
    <tripinfo id="Chikkohommachi_D_0700.2" depart="25206.00" departLane="-42762530#1_0" departPos="5.10" departSpeed="0.00" departDelay="0.96" arrival="25219.00" arrivalLane="40745158#1_0" arrivalPos="24.71" arrivalSpeed="25.31" duration="13.00" routeLength="159.32" waitingTime="0.00" waitingCount="0" stopTime="0.00" timeLoss="6.73" rerouteNo="0" devices="tripinfo_Chikkohommachi_D_0700.2" vType="DEFAULT_VEHTYPE" speedFactor="0.98" vaporized=""/>
    <tripinfo id="Hakataekimae3_B_0700.3" depart="25212.00" departLane="-40745201#1_0" departPos="5.10" departSpeed="0.00" departDelay="-0.93" arrival="25221.00" arrivalLane="268408808#2_0" arrivalPos="19.26" arrivalSpeed="15.70" duration="9.00" routeLength="69.53" waitingTime="0.00" waitingCount="0" stopTime="0.00" timeLoss="5.06" rerouteNo="0" devices="tripinfo_Hakataekimae3_B_0700.3" vType="DEFAULT_VEHTYPE" speedFactor="0.99" vaporized=""/>
    <tripinfo id="Chikkohommachi_B_0700.3" depart="25209.00" departLane="-40745158#1_0" departPos="5.10" departSpeed="0.00" departDelay="1.62" arrival="25222.00" arrivalLane="42762530#1_0" arrivalPos="83.46" arrivalSpeed="25.31" duration="13.00" routeLength="159.91" waitingTime="0.00" waitingCount="0" stopTime="0.00" timeLoss="6.90" rerouteNo="0" devices="tripinfo_Chikkohommachi_B_0700.3" vType="DEFAULT_VEHTYPE" speedFactor="1.04" vaporized=""/>
    <tripinfo id="Chikkohommachi_D_0700.3" depart="25209.00" departLane="-42762530#1_0" departPos="5.10" departSpeed="0.00" departDelay="1.45" arrival="25222.00" arrivalLane="40745158#1_0" arrivalPos="24.71" arrivalSpeed="24.09" duration="13.00" routeLength="159.32" waitingTime="0.00" waitingCount="0" stopTime="0.00" timeLoss="6.78" rerouteNo="0" devices="tripinfo_Chikkohommachi_D_0700.3" vType="DEFAULT_VEHTYPE" speedFactor="1.01" vaporized=""/>
    <tripinfo id="Hakataekimae3_C_0700.1" depart="25203.00" departLane="41118349#9_0" departPos="5.10" departSpeed="0.00" departDelay="-0.37" arrival="25225.00" arrivalLane="194289094#1_0" arrivalPos="54.02" arrivalSpeed="19.03" duration="22.00" routeLength="307.89" waitingTime="0.00" waitingCount="0" stopTime="0.00" timeLoss="7.25" rerouteNo="0" devices="tripinfo_Hakataekimae3_C_0700.1" vType="DEFAULT_VEHTYPE" speedFactor="1.04" vaporized=""/>
    <tripinfo id="Chikkohommachi_B_0700.4" depart="25210.00" departLane="-40745158#1_0" departPos="5.10" departSpeed="0.00" departDelay="0.16" arrival="25225.00" arrivalLane="42762530#1_0" arrivalPos="83.46" arrivalSpeed="24.26" duration="15.00" routeLength="159.91" waitingTime="0.00" waitingCount="0" stopTime="0.00" timeLoss="8.09" rerouteNo="0" devices="tripinfo_Chikkohommachi_B_0700.4" vType="DEFAULT_VEHTYPE" speedFactor="0.96" vaporized=""/>
    <tripinfo id="Chikkohommachi_B_0700.5" depart="25212.00" departLane="-40745158#1_0" departPos="5.10" departSpeed="0.00" departDelay="-0.30" arrival="25226.00" arrivalLane="42762530#1_0" arrivalPos="83.46" arrivalSpeed="23.75" duration="14.00" routeLength="159.91" waitingTime="0.00" waitingCount="0" stopTime="0.00" timeLoss="7.16" rerouteNo="0" devices="tripinfo_Chikkohommachi_B_0700.5" vType="DEFAULT_VEHTYPE" speedFactor="0.87" vaporized=""/>
    <tripinfo id="Hakataekimae3_B_0700.4" depart="25217.00" departLane="-40745201#1_0" departPos="5.10" departSpeed="0.00" departDelay="-0.24" arrival="25226.00" arrivalLane="268408808#2_0" arrivalPos="19.26" arrivalSpeed="15.22" duration="9.00" routeLength="69.53" waitingTime="0.00" waitingCount="0" stopTime="0.00" timeLoss="5.51" rerouteNo="0" devices="tripinfo_Hakataekimae3_B_0700.4" vType="DEFAULT_VEHTYPE" speedFactor="1.11" vaporized=""/>
    <tripinfo id="Kego_A_0700.4" depart="25212.00" departLane="493376596#1_0" departPos="5.10" departSpeed="0.00" departDelay="-0.55" arrival="25230.00" arrivalLane="-68757112#12_1" arrivalPos="52.57" arrivalSpeed="16.55" duration="18.00" routeLength="188.22" waitingTime="0.00" waitingCount="0" stopTime="0.00" timeLoss="10.16" rerouteNo="0" devices="tripinfo_Kego_A_0700.4" vType="DEFAULT_VEHTYPE" speedFactor="1.01" vaporized=""/>
    <tripinfo id="WatanabeDori1_D_0700.4" depart="25212.00" departLane="-220469#0_0" departPos="5.10" departSpeed="0.00" departDelay="2.58" arrival="25233.00" arrivalLane="206789981_2" arrivalPos="104.27" arrivalSpeed="22.14" duration="21.00" routeLength="247.33" waitingTime="0.00" waitingCount="0" stopTime="0.00" timeLoss="9.15" rerouteNo="0" devices="tripinfo_WatanabeDori1_D_0700.4" vType="DEFAULT_VEHTYPE" speedFactor="1.07" vaporized=""/>
    <tripinfo id="Kego_A_0700.5" depart="25215.00" departLane="493376596#1_0" departPos="5.10" departSpeed="0.00" departDelay="-0.69" arrival="25234.00" arrivalLane="-68757112#12_1" arrivalPos="52.57" arrivalSpeed="16.22" duration="19.00" routeLength="188.22" waitingTime="0.00" waitingCount="0" stopTime="0.00" timeLoss="11.12" rerouteNo="0" devices="tripinfo_Kego_A_0700.5" vType="DEFAULT_VEHTYPE" speedFactor="1.03" vaporized=""/>
    <tripinfo id="Hakataekimae3_B_0700.6" depart="25225.00" departLane="-40745201#1_0" departPos="5.10" departSpeed="0.00" departDelay="-0.86" arrival="25234.00" arrivalLane="268408808#2_0" arrivalPos="19.26" arrivalSpeed="14.49" duration="9.00" routeLength="69.53" waitingTime="0.00" waitingCount="0" stopTime="0.00" timeLoss="4.52" rerouteNo="0" devices="tripinfo_Hakataekimae3_B_0700.6" vType="DEFAULT_VEHTYPE" speedFactor="0.94" vaporized=""/>
    <tripinfo id="Kego_A_0700.6" depart="25218.00" departLane="493376596#1_0" departPos="5.10" departSpeed="0.00" departDelay="-0.82" arrival="25238.00" arrivalLane="-68757112#12_1" arrivalPos="52.57" arrivalSpeed="14.84" duration="20.00" routeLength="188.22" waitingTime="0.00" waitingCount="0" stopTime="0.00" timeLoss="10.46" rerouteNo="0" devices="tripinfo_Kego_A_0700.6" vType="DEFAULT_VEHTYPE" speedFactor="0.89" vaporized=""/>
    <tripinfo id="Nanotsuguchi_B_0700.6" depart="25217.00" departLane="46679467#4_0" departPos="5.10" departSpeed="0.00" departDelay="0.03" arrival="25239.00" arrivalLane="43105222#0_2" arrivalPos="101.61" arrivalSpeed="21.71" duration="22.00" routeLength="201.27" waitingTime="0.00" waitingCount="0" stopTime="0.00" timeLoss="12.84" rerouteNo="0" devices="tripinfo_Nanotsuguchi_B_0700.6" vType="DEFAULT_VEHTYPE" speedFactor="1.00" vaporized=""/>
    <tripinfo id="Nanotsuguchi_B_0700.3" depart="25208.00" departLane="46679467#4_0" departPos="5.10" departSpeed="0.00" departDelay="-0.49" arrival="25240.00" arrivalLane="43105222#0_0" arrivalPos="101.61" arrivalSpeed="19.87" duration="32.00" routeLength="201.27" waitingTime="9.00" waitingCount="1" stopTime="0.00" timeLoss="21.74" rerouteNo="0" devices="tripinfo_Nanotsuguchi_B_0700.3" vType="DEFAULT_VEHTYPE" speedFactor="0.92" vaporized=""/>
    <tripinfo id="Nanotsuguchi_B_0700.4" depart="25211.00" departLane="46679467#4_0" departPos="5.10" departSpeed="0.00" departDelay="-0.32" arrival="25240.00" arrivalLane="43105222#0_1" arrivalPos="101.61" arrivalSpeed="22.58" duration="29.00" routeLength="201.27" waitingTime="6.00" waitingCount="1" stopTime="0.00" timeLoss="19.50" rerouteNo="0" devices="tripinfo_Nanotsuguchi_B_0700.4" vType="DEFAULT_VEHTYPE" speedFactor="1.03" vaporized=""/>
    <tripinfo id="Kego_A_0700.7" depart="25221.00" departLane="493376596#1_0" departPos="5.10" departSpeed="0.00" departDelay="-0.96" arrival="25240.00" arrivalLane="41720513#0_0" arrivalPos="84.04" arrivalSpeed="20.46" duration="19.00" routeLength="211.72" waitingTime="0.00" waitingCount="0" stopTime="0.00" timeLoss="10.35" rerouteNo="0" devices="tripinfo_Kego_A_0700.7" vType="DEFAULT_VEHTYPE" speedFactor="1.13" vaporized=""/>
    <tripinfo id="TaishoDori_IntoB_0700.6" depart="25218.00" departLane="210342326#0_0" departPos="5.10" departSpeed="0.00" departDelay="5.44" arrival="25241.00" arrivalLane="-95484971#4_0" arrivalPos="35.66" arrivalSpeed="14.41" duration="23.00" routeLength="287.57" waitingTime="0.00" waitingCount="0" stopTime="0.00" timeLoss="9.38" rerouteNo="0" devices="tripinfo_TaishoDori_IntoB_0700.6" vType="DEFAULT_VEHTYPE" speedFactor="1.10" vaporized=""/>
    <tripinfo id="Nanotsuguchi_B_0700.7" depart="25220.00" departLane="46679467#4_0" departPos="5.10" departSpeed="0.00" departDelay="0.20" arrival="25241.00" arrivalLane="43105222#0_1" arrivalPos="101.61" arrivalSpeed="23.23" duration="21.00" routeLength="201.27" waitingTime="1.00" waitingCount="1" stopTime="0.00" timeLoss="12.36" rerouteNo="0" devices="tripinfo_Nanotsuguchi_B_0700.7" vType="DEFAULT_VEHTYPE" speedFactor="1.07" vaporized=""/>
    <tripinfo id="24-1_0700.0" depart="25200.00" departLane="179084412#1_0" departPos="5.10" departSpeed="0.00" departDelay="0.00" arrival="25242.00" arrivalLane="210342325#3_0" arrivalPos="124.78" arrivalSpeed="24.65" duration="42.00" routeLength="739.47" waitingTime="0.00" waitingCount="0" stopTime="0.00" timeLoss="9.76" rerouteNo="0" devices="tripinfo_24-1_0700.0" vType="DEFAULT_VEHTYPE" speedFactor="1.13" vaporized=""/>
    <tripinfo id="Nanotsuguchi_B_0700.5" depart="25214.00" departLane="46679467#4_0" departPos="5.10" departSpeed="0.00" departDelay="-0.15" arrival="25242.00" arrivalLane="43105222#0_0" arrivalPos="101.61" arrivalSpeed="22.60" duration="28.00" routeLength="201.27" waitingTime="6.00" waitingCount="1" stopTime="0.00" timeLoss="18.33" rerouteNo="0" devices="tripinfo_Nanotsuguchi_B_0700.5" vType="DEFAULT_VEHTYPE" speedFactor="1.03" vaporized=""/>
    <tripinfo id="Hakataekimae3_B_0700.0" depart="25200.00" departLane="-40745201#1_0" departPos="5.10" departSpeed="0.00" departDelay="0.00" arrival="25243.00" arrivalLane="358569802#0_1" arrivalPos="18.13" arrivalSpeed="22.90" duration="43.00" routeLength="467.95" waitingTime="11.00" waitingCount="1" stopTime="0.00" timeLoss="21.32" rerouteNo="0" devices="tripinfo_Hakataekimae3_B_0700.0" vType="DEFAULT_VEHTYPE" speedFactor="1.04" vaporized=""/>
    <tripinfo id="Nanotsuguchi_D_0700.0" depart="25200.00" departLane="-43105222#0_0" departPos="5.10" departSpeed="0.00" departDelay="0.00" arrival="25243.00" arrivalLane="207902938#0_0" arrivalPos="155.64" arrivalSpeed="16.24" duration="43.00" routeLength="302.93" waitingTime="15.00" waitingCount="1" stopTime="0.00" timeLoss="31.26" rerouteNo="0" devices="tripinfo_Nanotsuguchi_D_0700.0" vType="DEFAULT_VEHTYPE" speedFactor="1.17" vaporized=""/>
    <tripinfo id="Nanotsuguchi_D_0700.1" depart="25203.00" departLane="-43105222#0_0" departPos="5.10" departSpeed="0.00" departDelay="-0.04" arrival="25243.00" arrivalLane="207902938#0_0" arrivalPos="155.64" arrivalSpeed="19.25" duration="40.00" routeLength="302.93" waitingTime="13.00" waitingCount="1" stopTime="0.00" timeLoss="24.11" rerouteNo="0" devices="tripinfo_Nanotsuguchi_D_0700.1" vType="DEFAULT_VEHTYPE" speedFactor="0.91" vaporized=""/>
    <tripinfo id="Nanotsuguchi_B_0700.8" depart="25223.00" departLane="46679467#4_0" departPos="5.10" departSpeed="0.00" departDelay="0.37" arrival="25243.00" arrivalLane="43105222#0_0" arrivalPos="101.61" arrivalSpeed="22.28" duration="20.00" routeLength="201.27" waitingTime="0.00" waitingCount="0" stopTime="0.00" timeLoss="10.54" rerouteNo="0" devices="tripinfo_Nanotsuguchi_B_0700.8" vType="DEFAULT_VEHTYPE" speedFactor="1.00" vaporized=""/>
    <tripinfo id="Nanotsuguchi_B_0700.9" depart="25226.00" departLane="46679467#4_0" departPos="5.10" departSpeed="0.00" departDelay="0.54" arrival="25243.00" arrivalLane="43105222#0_1" arrivalPos="101.61" arrivalSpeed="24.37" duration="17.00" routeLength="201.27" waitingTime="0.00" waitingCount="0" stopTime="0.00" timeLoss="8.03" rerouteNo="0" devices="tripinfo_Nanotsuguchi_B_0700.9" vType="DEFAULT_VEHTYPE" speedFactor="1.10" vaporized=""/>
    <tripinfo id="Nanotsuguchi_D_0700.4" depart="25212.00" departLane="-43105222#0_0" departPos="5.10" departSpeed="0.00" departDelay="-0.16" arrival="25244.00" arrivalLane="207902938#0_1" arrivalPos="155.64" arrivalSpeed="20.19" duration="32.00" routeLength="302.93" waitingTime="4.00" waitingCount="1" stopTime="0.00" timeLoss="17.00" rerouteNo="0" devices="tripinfo_Nanotsuguchi_D_0700.4" vType="DEFAULT_VEHTYPE" speedFactor="0.93" vaporized=""/>
    <tripinfo id="WatanabeDori1_C_0700.0" depart="25200.00" departLane="186154251#1_0" departPos="3.61" departSpeed="0.00" departDelay="0.00" arrival="25245.00" arrivalLane="362162012#0_0" arrivalPos="70.84" arrivalSpeed="20.95" duration="45.00" routeLength="128.42" waitingTime="33.00" waitingCount="1" stopTime="0.00" timeLoss="38.63" rerouteNo="0" devices="tripinfo_WatanabeDori1_C_0700.0" vType="DEFAULT_VEHTYPE" speedFactor="1.00" vaporized=""/>
    <tripinfo id="Nanotsuguchi_D_0700.2" depart="25206.00" departLane="-43105222#0_0" departPos="5.10" departSpeed="0.00" departDelay="-0.08" arrival="25245.00" arrivalLane="207902938#0_0" arrivalPos="155.64" arrivalSpeed="19.78" duration="39.00" routeLength="302.93" waitingTime="9.00" waitingCount="1" stopTime="0.00" timeLoss="25.27" rerouteNo="0" devices="tripinfo_Nanotsuguchi_D_0700.2" vType="DEFAULT_VEHTYPE" speedFactor="1.03" vaporized=""/>
    <tripinfo id="Nanotsuguchi_B_0700.10" depart="25228.00" departLane="46679467#4_0" departPos="5.10" departSpeed="0.00" departDelay="-0.29" arrival="25245.00" arrivalLane="43105222#0_0" arrivalPos="101.61" arrivalSpeed="18.28" duration="17.00" routeLength="201.27" waitingTime="0.00" waitingCount="0" stopTime="0.00" timeLoss="5.74" rerouteNo="0" devices="tripinfo_Nanotsuguchi_B_0700.10" vType="DEFAULT_VEHTYPE" speedFactor="0.83" vaporized=""/>
    <tripinfo id="WatanabeDori1_A_0700.0" depart="25200.00" departLane="-362162012#0_0" departPos="5.10" departSpeed="0.00" departDelay="0.00" arrival="25246.00" arrivalLane="206789981_0" arrivalPos="104.27" arrivalSpeed="21.60" duration="46.00" routeLength="233.49" waitingTime="22.00" waitingCount="1" stopTime="0.00" timeLoss="34.88" rerouteNo="0" devices="tripinfo_WatanabeDori1_A_0700.0" vType="DEFAULT_VEHTYPE" speedFactor="1.00" vaporized=""/>
    <tripinfo id="WatanabeDori1_A_0700.1" depart="25204.00" departLane="-362162012#0_0" departPos="5.10" departSpeed="0.00" departDelay="-0.17" arrival="25246.00" arrivalLane="206789981_1" arrivalPos="104.27" arrivalSpeed="21.75" duration="42.00" routeLength="233.49" waitingTime="19.00" waitingCount="1" stopTime="0.00" timeLoss="31.24" rerouteNo="0" devices="tripinfo_WatanabeDori1_A_0700.1" vType="DEFAULT_VEHTYPE" speedFactor="1.02" vaporized=""/>
    <tripinfo id="Nanotsuguchi_D_0700.6" depart="25218.00" departLane="-43105222#0_0" departPos="5.10" departSpeed="0.00" departDelay="-0.23" arrival="25246.00" arrivalLane="207902938#0_1" arrivalPos="155.64" arrivalSpeed="23.86" duration="28.00" routeLength="302.93" waitingTime="0.00" waitingCount="0" stopTime="0.00" timeLoss="15.26" rerouteNo="0" devices="tripinfo_Nanotsuguchi_D_0700.6" vType="DEFAULT_VEHTYPE" speedFactor="1.14" vaporized=""/>
    <tripinfo id="WatanabeDori1_C_0700.1" depart="25236.00" departLane="186154251#1_0" departPos="3.61" departSpeed="0.00" departDelay="31.50" arrival="25247.00" arrivalLane="362162012#0_0" arrivalPos="70.84" arrivalSpeed="20.42" duration="11.00" routeLength="128.42" waitingTime="0.00" waitingCount="0" stopTime="0.00" timeLoss="4.46" rerouteNo="0" devices="tripinfo_WatanabeDori1_C_0700.1" vType="DEFAULT_VEHTYPE" speedFactor="0.94" vaporized=""/>
    <tripinfo id="Nanotsuguchi_D_0700.3" depart="25209.00" departLane="-43105222#0_0" departPos="5.10" departSpeed="0.00" departDelay="-0.12" arrival="25247.00" arrivalLane="207902938#0_0" arrivalPos="155.64" arrivalSpeed="23.10" duration="38.00" routeLength="302.93" waitingTime="9.00" waitingCount="1" stopTime="0.00" timeLoss="24.92" rerouteNo="0" devices="tripinfo_Nanotsuguchi_D_0700.3" vType="DEFAULT_VEHTYPE" speedFactor="1.12" vaporized=""/>
    <tripinfo id="Nanotsuguchi_D_0700.7" depart="25221.00" departLane="-43105222#0_0" departPos="5.10" departSpeed="0.00" departDelay="-0.27" arrival="25247.00" arrivalLane="207902938#0_1" arrivalPos="155.64" arrivalSpeed="24.84" duration="26.00" routeLength="302.93" waitingTime="0.00" waitingCount="0" stopTime="0.00" timeLoss="13.70" rerouteNo="0" devices="tripinfo_Nanotsuguchi_D_0700.7" vType="DEFAULT_VEHTYPE" speedFactor="1.14" vaporized=""/>
    <tripinfo id="Nanotsuguchi_B_0700.11" depart="25231.00" departLane="46679467#4_0" departPos="5.10" departSpeed="0.00" departDelay="-0.12" arrival="25247.00" arrivalLane="43105222#0_0" arrivalPos="101.61" arrivalSpeed="21.45" duration="16.00" routeLength="201.27" waitingTime="0.00" waitingCount="0" stopTime="0.00" timeLoss="6.24" rerouteNo="0" devices="tripinfo_Nanotsuguchi_B_0700.11" vType="DEFAULT_VEHTYPE" speedFactor="1.00" vaporized=""/>
    <tripinfo id="WatanabeDori1_A_0700.2" depart="25208.00" departLane="-362162012#0_0" departPos="5.10" departSpeed="0.00" departDelay="-0.34" arrival="25248.00" arrivalLane="206789981_0" arrivalPos="104.27" arrivalSpeed="19.42" duration="40.00" routeLength="233.49" waitingTime="16.00" waitingCount="1" stopTime="0.00" timeLoss="27.65" rerouteNo="0" devices="tripinfo_WatanabeDori1_A_0700.2" vType="DEFAULT_VEHTYPE" speedFactor="0.89" vaporized=""/>
    <tripinfo id="Nanotsuguchi_D_0700.5" depart="25215.00" departLane="-43105222#0_0" departPos="5.10" departSpeed="0.00" departDelay="-0.19" arrival="25248.00" arrivalLane="207902938#0_0" arrivalPos="155.64" arrivalSpeed="22.03" duration="33.00" routeLength="302.93" waitingTime="4.00" waitingCount="1" stopTime="0.00" timeLoss="19.00" rerouteNo="0" devices="tripinfo_Nanotsuguchi_D_0700.5" vType="DEFAULT_VEHTYPE" speedFactor="1.01" vaporized=""/>
    <tripinfo id="WatanabeDori1_A_0700.4" depart="25216.00" departLane="-362162012#0_0" departPos="5.10" departSpeed="0.00" departDelay="-0.68" arrival="25248.00" arrivalLane="206789981_1" arrivalPos="104.27" arrivalSpeed="21.57" duration="32.00" routeLength="233.49" waitingTime="8.00" waitingCount="1" stopTime="0.00" timeLoss="20.89" rerouteNo="0" devices="tripinfo_WatanabeDori1_A_0700.4" vType="DEFAULT_VEHTYPE" speedFactor="1.01" vaporized=""/>
    <tripinfo id="Nanotsuguchi_D_0700.8" depart="25224.00" departLane="-43105222#0_0" departPos="5.10" departSpeed="0.00" departDelay="-0.31" arrival="25249.00" arrivalLane="207902938#0_1" arrivalPos="155.64" arrivalSpeed="21.11" duration="25.00" routeLength="302.93" waitingTime="0.00" waitingCount="0" stopTime="0.00" timeLoss="10.12" rerouteNo="0" devices="tripinfo_Nanotsuguchi_D_0700.8" vType="DEFAULT_VEHTYPE" speedFactor="0.96" vaporized=""/>
    <tripinfo id="Fukuokashiyakushoiriguchi_C_0700.1" depart="25225.00" departLane="68756861#2_0" departPos="5.10" departSpeed="0.00" departDelay="-0.52" arrival="25250.00" arrivalLane="314741788#1_0" arrivalPos="55.38" arrivalSpeed="13.90" duration="25.00" routeLength="135.47" waitingTime="6.00" waitingCount="1" stopTime="0.00" timeLoss="16.92" rerouteNo="0" devices="tripinfo_Fukuokashiyakushoiriguchi_C_0700.1" vType="DEFAULT_VEHTYPE" speedFactor="1.03" vaporized=""/>
    <tripinfo id="WatanabeDori1_A_0700.7" depart="25229.00" departLane="-362162012#0_0" departPos="5.10" departSpeed="0.00" departDelay="-0.19" arrival="25250.00" arrivalLane="206789981_1" arrivalPos="104.27" arrivalSpeed="21.86" duration="21.00" routeLength="233.49" waitingTime="0.00" waitingCount="0" stopTime="0.00" timeLoss="9.91" rerouteNo="0" devices="tripinfo_WatanabeDori1_A_0700.7" vType="DEFAULT_VEHTYPE" speedFactor="1.04" vaporized=""/>
    <tripinfo id="Nanotsuguchi_D_0700.10" depart="25230.00" departLane="-43105222#0_0" departPos="5.10" departSpeed="0.00" departDelay="-0.39" arrival="25250.00" arrivalLane="207902938#0_0" arrivalPos="155.64" arrivalSpeed="22.02" duration="20.00" routeLength="302.93" waitingTime="0.00" waitingCount="0" stopTime="0.00" timeLoss="7.42" rerouteNo="0" devices="tripinfo_Nanotsuguchi_D_0700.10" vType="DEFAULT_VEHTYPE" speedFactor="1.10" vaporized=""/>
    <tripinfo id="Nanotsuguchi_B_0700.12" depart="25234.00" departLane="46679467#4_0" departPos="5.10" departSpeed="0.00" departDelay="0.05" arrival="25250.00" arrivalLane="43105222#0_0" arrivalPos="101.61" arrivalSpeed="20.99" duration="16.00" routeLength="201.27" waitingTime="0.00" waitingCount="0" stopTime="0.00" timeLoss="6.00" rerouteNo="0" devices="tripinfo_Nanotsuguchi_B_0700.12" vType="DEFAULT_VEHTYPE" speedFactor="0.99" vaporized=""/>
    <tripinfo id="WatanabeDori1_C_0700.2" depart="25239.00" departLane="186154251#1_0" departPos="3.61" departSpeed="0.00" departDelay="30.00" arrival="25251.00" arrivalLane="362162012#0_0" arrivalPos="70.84" arrivalSpeed="21.88" duration="12.00" routeLength="128.42" waitingTime="0.00" waitingCount="0" stopTime="0.00" timeLoss="5.59" rerouteNo="0" devices="tripinfo_WatanabeDori1_C_0700.2" vType="DEFAULT_VEHTYPE" speedFactor="1.01" vaporized=""/>
    <tripinfo id="WatanabeDori1_A_0700.8" depart="25233.00" departLane="-362162012#0_0" departPos="5.10" departSpeed="0.00" departDelay="-0.36" arrival="25251.00" arrivalLane="206789981_1" arrivalPos="104.27" arrivalSpeed="20.87" duration="18.00" routeLength="233.49" waitingTime="0.00" waitingCount="0" stopTime="0.00" timeLoss="6.88" rerouteNo="0" devices="tripinfo_WatanabeDori1_A_0700.8" vType="DEFAULT_VEHTYPE" speedFactor="0.97" vaporized=""/>
    <tripinfo id="Nanotsuguchi_D_0700.11" depart="25233.00" departLane="-43105222#0_0" departPos="5.10" departSpeed="0.00" departDelay="-0.43" arrival="25251.00" arrivalLane="207902938#0_1" arrivalPos="155.64" arrivalSpeed="26.51" duration="18.00" routeLength="302.93" waitingTime="0.00" waitingCount="0" stopTime="0.00" timeLoss="6.49" rerouteNo="0" devices="tripinfo_Nanotsuguchi_D_0700.11" vType="DEFAULT_VEHTYPE" speedFactor="1.24" vaporized=""/>
    <tripinfo id="WatanabeDori1_C_0700.3" depart="25242.00" departLane="186154251#1_0" departPos="3.61" departSpeed="0.00" departDelay="28.51" arrival="25253.00" arrivalLane="362162012#0_0" arrivalPos="70.84" arrivalSpeed="20.31" duration="11.00" routeLength="128.42" waitingTime="0.00" waitingCount="0" stopTime="0.00" timeLoss="4.59" rerouteNo="0" devices="tripinfo_WatanabeDori1_C_0700.3" vType="DEFAULT_VEHTYPE" speedFactor="0.94" vaporized=""/>
    <tripinfo id="Nanotsuguchi_B_0700.14" depart="25239.00" departLane="46679467#4_0" departPos="5.10" departSpeed="0.00" departDelay="-0.61" arrival="25254.00" arrivalLane="43105222#0_0" arrivalPos="101.61" arrivalSpeed="17.93" duration="15.00" routeLength="201.27" waitingTime="0.00" waitingCount="0" stopTime="0.00" timeLoss="4.10" rerouteNo="0" devices="tripinfo_Nanotsuguchi_B_0700.14" vType="DEFAULT_VEHTYPE" speedFactor="0.84" vaporized=""/>
    <tripinfo id="Nanotsuguchi_D_0700.12" depart="25236.00" departLane="-43105222#0_0" departPos="5.10" departSpeed="0.00" departDelay="-0.47" arrival="25256.00" arrivalLane="207902938#0_0" arrivalPos="155.64" arrivalSpeed="21.11" duration="20.00" routeLength="302.93" waitingTime="0.00" waitingCount="0" stopTime="0.00" timeLoss="5.06" rerouteNo="0" devices="tripinfo_Nanotsuguchi_D_0700.12" vType="DEFAULT_VEHTYPE" speedFactor="0.95" vaporized=""/>
    <tripinfo id="WatanabeDori1_C_0700.4" depart="25245.00" departLane="186154251#1_0" departPos="3.61" departSpeed="0.00" departDelay="27.01" arrival="25257.00" arrivalLane="362162012#0_0" arrivalPos="70.84" arrivalSpeed="20.40" duration="12.00" routeLength="128.42" waitingTime="0.00" waitingCount="0" stopTime="0.00" timeLoss="6.63" rerouteNo="0" devices="tripinfo_WatanabeDori1_C_0700.4" vType="DEFAULT_VEHTYPE" speedFactor="1.13" vaporized=""/>
    <tripinfo id="Nanotsuguchi_B_0700.15" depart="25242.00" departLane="46679467#4_0" departPos="5.10" departSpeed="0.00" departDelay="-0.44" arrival="25257.00" arrivalLane="43105222#0_0" arrivalPos="101.61" arrivalSpeed="18.37" duration="15.00" routeLength="201.27" waitingTime="0.00" waitingCount="0" stopTime="0.00" timeLoss="4.37" rerouteNo="0" devices="tripinfo_Nanotsuguchi_B_0700.15" vType="DEFAULT_VEHTYPE" speedFactor="0.87" vaporized=""/>
    <tripinfo id="WatanabeDori1_A_0700.10" depart="25241.00" departLane="-362162012#0_0" departPos="5.10" departSpeed="0.00" departDelay="-0.70" arrival="25258.00" arrivalLane="206789981_1" arrivalPos="104.27" arrivalSpeed="21.13" duration="17.00" routeLength="233.49" waitingTime="0.00" waitingCount="0" stopTime="0.00" timeLoss="5.62" rerouteNo="0" devices="tripinfo_WatanabeDori1_A_0700.10" vType="DEFAULT_VEHTYPE" speedFactor="0.98" vaporized=""/>
    <tripinfo id="WatanabeDori1_C_0700.5" depart="25248.00" departLane="186154251#1_0" departPos="3.61" departSpeed="0.00" departDelay="25.51" arrival="25259.00" arrivalLane="362162012#0_0" arrivalPos="70.84" arrivalSpeed="19.52" duration="11.00" routeLength="128.42" waitingTime="0.00" waitingCount="0" stopTime="0.00" timeLoss="4.48" rerouteNo="0" devices="tripinfo_WatanabeDori1_C_0700.5" vType="DEFAULT_VEHTYPE" speedFactor="0.91" vaporized=""/>
    <tripinfo id="Nanotsuguchi_D_0700.13" depart="25239.00" departLane="-43105222#0_0" departPos="5.10" departSpeed="0.00" departDelay="-0.51" arrival="25259.00" arrivalLane="207902938#0_0" arrivalPos="155.64" arrivalSpeed="21.47" duration="20.00" routeLength="302.93" waitingTime="0.00" waitingCount="0" stopTime="0.00" timeLoss="5.62" rerouteNo="0" devices="tripinfo_Nanotsuguchi_D_0700.13" vType="DEFAULT_VEHTYPE" speedFactor="1.01" vaporized=""/>
    <tripinfo id="Kego_B_0700.0" depart="25200.00" departLane="-41720513#0_0" departPos="5.10" departSpeed="0.00" departDelay="0.00" arrival="25260.00" arrivalLane="-68757112#12_0" arrivalPos="52.57" arrivalSpeed="15.82" duration="60.00" routeLength="155.22" waitingTime="40.00" waitingCount="1" stopTime="0.00" timeLoss="53.32" rerouteNo="0" devices="tripinfo_Kego_B_0700.0" vType="DEFAULT_VEHTYPE" speedFactor="1.00" vaporized=""/>
    <tripinfo id="Kego_D_0700.0" depart="25200.00" departLane="68757112#12_0" departPos="5.10" departSpeed="0.00" departDelay="0.00" arrival="25261.00" arrivalLane="41720513#0_0" arrivalPos="84.04" arrivalSpeed="18.93" duration="61.00" routeLength="154.19" waitingTime="42.00" waitingCount="1" stopTime="0.00" timeLoss="53.74" rerouteNo="0" devices="tripinfo_Kego_D_0700.0" vType="DEFAULT_VEHTYPE" speedFactor="0.90" vaporized=""/>
    <tripinfo id="Nanotsuguchi_D_0700.14" depart="25242.00" departLane="-43105222#0_0" departPos="5.10" departSpeed="0.00" departDelay="-0.55" arrival="25261.00" arrivalLane="207902938#0_0" arrivalPos="155.64" arrivalSpeed="22.57" duration="19.00" routeLength="302.93" waitingTime="0.00" waitingCount="0" stopTime="0.00" timeLoss="5.81" rerouteNo="0" devices="tripinfo_Nanotsuguchi_D_0700.14" vType="DEFAULT_VEHTYPE" speedFactor="1.05" vaporized=""/>
    <tripinfo id="WatanabeDori1_A_0700.11" depart="25245.00" departLane="-362162012#0_0" departPos="5.10" departSpeed="0.00" departDelay="-0.87" arrival="25261.00" arrivalLane="206789981_0" arrivalPos="104.27" arrivalSpeed="23.77" duration="16.00" routeLength="233.49" waitingTime="0.00" waitingCount="0" stopTime="0.00" timeLoss="6.01" rerouteNo="0" devices="tripinfo_WatanabeDori1_A_0700.11" vType="DEFAULT_VEHTYPE" speedFactor="1.09" vaporized=""/>